     Message from routine get_command_line:
     unexpected argument # 2     :-inp

     Program PWSCF v.6.0 starts on  6May2021 at  2:10:10 

     This program is part of the open-source Quantum ESPRESSO suite
     for quantum simulation of materials; please cite
         "P. Giannozzi et al., J. Phys.:Condens. Matter 21 395502 (2009);
          URL http://www.quantum-espresso.org", 
     in publications or presentations arising from this work. More details at
     http://www.quantum-espresso.org/quote

     Parallel version (MPI), running on     1 processors
     Waiting for input...
     Reading input from standard input

     Current dimensions of program PWSCF are:
     Max number of different atomic species (ntypx) = 10
     Max number of k-points (npk) =  40000
     Max angular momentum in pseudopotentials (lmaxx) =  3

     Subspace diagonalization in iterative solution of the eigenvalue problem:
     a serial algorithm will be used


     G-vector sticks info
     --------------------
     sticks:   dense  smooth     PW     G-vecs:    dense   smooth      PW
     Sum         283     283     97                 3143     3143     645



     bravais-lattice index     =            2
     lattice parameter (alat)  =      10.2000  a.u.
     unit-cell volume          =     265.3020 (a.u.)^3
     number of atoms/cell      =            2
     number of atomic types    =            1
     number of electrons       =         8.00
     number of Kohn-Sham states=            4
     kinetic-energy cutoff     =      20.0000  Ry
     charge density cutoff     =      80.0000  Ry
     convergence threshold     =      1.0E-06
     mixing beta               =       0.7000
     number of iterations used =            8  plain     mixing
     Exchange-correlation      = PBE ( 1  4  3  4 0 0)

     celldm(1)=  10.200000  celldm(2)=   0.000000  celldm(3)=   0.000000
     celldm(4)=   0.000000  celldm(5)=   0.000000  celldm(6)=   0.000000

     crystal axes: (cart. coord. in units of alat)
               a(1) = (  -0.500000   0.000000   0.500000 )  
               a(2) = (   0.000000   0.500000   0.500000 )  
               a(3) = (  -0.500000   0.500000   0.000000 )  

     reciprocal axes: (cart. coord. in units 2 pi/alat)
               b(1) = ( -1.000000 -1.000000  1.000000 )  
               b(2) = (  1.000000  1.000000  1.000000 )  
               b(3) = ( -1.000000  1.000000 -1.000000 )  


     PseudoPot. # 1 for Si read from file:
     /home/maestro/Downloads/SSSP_efficiency_pseudos/Si.pbe-n-rrkjus_psl.1.0.0.UPF
     MD5 check sum: 0b0bb1205258b0d07b9f9672cf965d36
     Pseudo is Ultrasoft + core correction, Zval =  4.0
     Generated using "atomic" code by A. Dal Corso  v.5.1
     Using radial grid of 1141 points,  6 beta functions with: 
                l(1) =   0
                l(2) =   0
                l(3) =   1
                l(4) =   1
                l(5) =   2
                l(6) =   2
     Q(r) pseudized with 0 coefficients 


     atomic species   valence    mass     pseudopotential
        Si             4.00    28.08550     Si( 1.00)

     48 Sym. Ops., with inversion, found (24 have fractional translation)



   Cartesian axes

     site n.     atom                  positions (alat units)
         1           Si  tau(   1) = (   0.0000000   0.0000000   0.0000000  )
         2           Si  tau(   2) = (   0.2500000   0.2500000   0.2500000  )

     number of k points=    16
                       cart. coord. in units 2pi/alat
        k(    1) = (   0.0000000   0.0000000   0.0000000), wk =   0.0092593
        k(    2) = (  -0.1666667   0.1666667  -0.1666667), wk =   0.0740741
        k(    3) = (  -0.3333333   0.3333333  -0.3333333), wk =   0.0740741
        k(    4) = (   0.5000000  -0.5000000   0.5000000), wk =   0.0370370
        k(    5) = (   0.0000000   0.3333333   0.0000000), wk =   0.0555556
        k(    6) = (  -0.1666667   0.5000000  -0.1666667), wk =   0.2222222
        k(    7) = (   0.6666667  -0.3333333   0.6666667), wk =   0.2222222
        k(    8) = (   0.5000000  -0.1666667   0.5000000), wk =   0.2222222
        k(    9) = (   0.3333333   0.0000000   0.3333333), wk =   0.1111111
        k(   10) = (   0.0000000   0.6666667   0.0000000), wk =   0.0555556
        k(   11) = (   0.8333333  -0.1666667   0.8333333), wk =   0.2222222
        k(   12) = (   0.6666667  -0.0000000   0.6666667), wk =   0.1111111
        k(   13) = (   0.0000000  -1.0000000   0.0000000), wk =   0.0277778
        k(   14) = (   0.6666667  -0.3333333   1.0000000), wk =   0.2222222
        k(   15) = (   0.5000000  -0.1666667   0.8333333), wk =   0.2222222
        k(   16) = (  -0.3333333  -1.0000000   0.0000000), wk =   0.1111111

     Dense  grid:     3143 G-vectors     FFT dimensions: (  24,  24,  24)

     Estimated max dynamical RAM per process >       3.05Mb

     Check: negative/imaginary core charge=   -0.000010    0.000000

     Initial potential from superposition of free atoms

     starting charge    7.99888, renormalised to    8.00000
     Starting wfc are    8 randomized atomic wfcs

     total cpu time spent up to now is        1.5 secs

     per-process dynamical memory:     6.9 Mb

     Self-consistent Calculation

     iteration #  1     ecut=    20.00 Ry     beta=0.70
     Davidson diagonalization with overlap
     ethr =  1.00E-02,  avg # of iterations =  2.0

     Threshold (ethr) on eigenvalues was too large:
     Diagonalizing with lowered threshold

     Davidson diagonalization with overlap
     ethr =  7.23E-04,  avg # of iterations =  1.4

     total cpu time spent up to now is        2.0 secs

     total energy              =     -22.83214104 Ry
     Harris-Foulkes estimate   =     -22.84649838 Ry
     estimated scf accuracy    <       0.05750221 Ry

     iteration #  2     ecut=    20.00 Ry     beta=0.70
     Davidson diagonalization with overlap
     ethr =  7.19E-04,  avg # of iterations =  1.0

     total cpu time spent up to now is        2.2 secs

     total energy              =     -22.83432838 Ry
     Harris-Foulkes estimate   =     -22.83455026 Ry
     estimated scf accuracy    <       0.00267007 Ry

     iteration #  3     ecut=    20.00 Ry     beta=0.70
     Davidson diagonalization with overlap
     ethr =  3.34E-05,  avg # of iterations =  2.8

     total cpu time spent up to now is        2.4 secs

     total energy              =     -22.83497438 Ry
     Harris-Foulkes estimate   =     -22.83503715 Ry
     estimated scf accuracy    <       0.00013792 Ry

     iteration #  4     ecut=    20.00 Ry     beta=0.70
     Davidson diagonalization with overlap
     ethr =  1.72E-06,  avg # of iterations =  2.1

     total cpu time spent up to now is        2.7 secs

     total energy              =     -22.83499550 Ry
     Harris-Foulkes estimate   =     -22.83502569 Ry
     estimated scf accuracy    <       0.00006271 Ry

     iteration #  5     ecut=    20.00 Ry     beta=0.70
     Davidson diagonalization with overlap
     ethr =  7.84E-07,  avg # of iterations =  2.0

     total cpu time spent up to now is        2.9 secs

     End of self-consistent calculation

          k = 0.0000 0.0000 0.0000 (   411 PWs)   bands (ev):

    -5.6815   6.4149   6.4149   6.4149

          k =-0.1667 0.1667-0.1667 (   387 PWs)   bands (ev):

    -5.3145   4.0124   5.9543   5.9543

          k =-0.3333 0.3333-0.3333 (   401 PWs)   bands (ev):

    -4.2817   1.0153   5.3944   5.3944

          k = 0.5000-0.5000 0.5000 (   392 PWs)   bands (ev):

    -3.3036  -0.6529   5.1941   5.1941

          k = 0.0000 0.3333 0.0000 (   399 PWs)   bands (ev):

    -5.1900   4.3881   5.1926   5.1926

          k =-0.1667 0.5000-0.1667 (   398 PWs)   bands (ev):

    -4.3614   1.9425   4.3891   4.6299

          k = 0.6667-0.3333 0.6667 (   403 PWs)   bands (ev):

    -3.1447  -0.2712   3.5926   4.6011

          k = 0.5000-0.1667 0.5000 (   404 PWs)   bands (ev):

    -3.5390   0.3414   3.3119   5.0911

          k = 0.3333 0.0000 0.3333 (   397 PWs)   bands (ev):

    -4.7169   2.6738   3.9469   5.8403

          k = 0.0000 0.6667 0.0000 (   399 PWs)   bands (ev):

    -3.7474   1.3811   3.9454   3.9454

          k = 0.8333-0.1667 0.8333 (   402 PWs)   bands (ev):

    -2.5626  -0.1986   2.7022   3.8074

          k = 0.6667-0.0000 0.6667 (   403 PWs)   bands (ev):

    -2.3578  -0.4124   1.9036   4.2587

          k = 0.0000-1.0000 0.0000 (   388 PWs)   bands (ev):

    -1.4699  -1.4699   3.5040   3.5040

          k = 0.6667-0.3333 1.0000 (   407 PWs)   bands (ev):

    -3.3542   0.7332   2.7678   4.0678

          k = 0.5000-0.1667 0.8333 (   400 PWs)   bands (ev):

    -2.3469  -0.4917   2.3232   3.5893

          k =-0.3333-1.0000 0.0000 (   398 PWs)   bands (ev):

    -1.3442  -1.3442   2.6875   2.6875

     highest occupied level (ev):     6.4149

!    total energy              =     -22.83500290 Ry
     Harris-Foulkes estimate   =     -22.83500291 Ry
     estimated scf accuracy    <       0.00000013 Ry

     The total energy is the sum of the following terms:

     one-electron contribution =       5.31009537 Ry
     hartree contribution      =       1.08829420 Ry
     xc contribution           =     -12.33363387 Ry
     ewald contribution        =     -16.89975859 Ry

     convergence has been achieved in   5 iterations

     Writing output data file si.save

     init_run     :      0.66s CPU      0.92s WALL (       1 calls)
     electrons    :      1.12s CPU      1.35s WALL (       1 calls)

     Called by init_run:
     wfcinit      :      0.08s CPU      0.10s WALL (       1 calls)
     potinit      :      0.01s CPU      0.02s WALL (       1 calls)

     Called by electrons:
     c_bands      :      0.76s CPU      0.91s WALL (       6 calls)
     sum_band     :      0.24s CPU      0.29s WALL (       6 calls)
     v_of_rho     :      0.06s CPU      0.07s WALL (       6 calls)
     newd         :      0.08s CPU      0.10s WALL (       6 calls)
     mix_rho      :      0.00s CPU      0.00s WALL (       6 calls)

     Called by c_bands:
     init_us_2    :      0.08s CPU      0.06s WALL (     208 calls)
     cegterg      :      0.63s CPU      0.77s WALL (      96 calls)

     Called by sum_band:
     sum_band:bec :      0.00s CPU      0.00s WALL (      96 calls)
     addusdens    :      0.07s CPU      0.11s WALL (       6 calls)

     Called by *egterg:
     h_psi        :      0.62s CPU      0.76s WALL (     293 calls)
     s_psi        :      0.04s CPU      0.04s WALL (     293 calls)
     g_psi        :     -0.00s CPU      0.00s WALL (     181 calls)
     cdiaghg      :      0.00s CPU      0.01s WALL (     261 calls)

     Called by h_psi:
     h_psi:pot    :      0.62s CPU      0.76s WALL (     293 calls)
     h_psi:calbec :      0.04s CPU      0.04s WALL (     293 calls)
     vloc_psi     :      0.54s CPU      0.68s WALL (     293 calls)
     add_vuspsi   :      0.04s CPU      0.04s WALL (     293 calls)

     General routines
     calbec       :      0.05s CPU      0.05s WALL (     389 calls)
     fft          :      0.04s CPU      0.03s WALL (      80 calls)
     fftw         :      0.59s CPU      0.74s WALL (    2628 calls)
     davcio       :      0.00s CPU      0.00s WALL (      16 calls)

     Parallel routines
     fft_scatter  :      0.04s CPU      0.02s WALL (    2708 calls)

     PWSCF        :     2.40s CPU         2.98s WALL


   This run was terminated on:   2:10:13   6May2021            

=------------------------------------------------------------------------------=
   JOB DONE.
=------------------------------------------------------------------------------=
